LAMMPS (10 Mar 2016)
  using 4 OpenMP thread(s) per MPI task
Lattice spacing in x,y,z = 5.431 5.431 5.431
Created orthogonal box = (0 0 0) to (108.62 108.62 54.31)
  4 by 5 by 1 MPI processor grid
Created 32000 atoms
----------------------------------------------------------
Using Intel Package without Coprocessor.
Precision: double
----------------------------------------------------------
Neighbor list info ...
  1 neighbor list requests
  update every 1 steps, delay 5 steps, check yes
  max neighbors/atom: 2000, page size: 100000
  master list distance cutoff = 4.2
  ghost atom cutoff = 4.2
  binsize = 2.1, bins = 52 52 26
Setting up Verlet run ...
  Unit style  : metal
  Current step: 0
  Time step   : 0.001
Memory usage per processor = 11.8827 Mbytes
Step Temp E_pair E_mol TotEng Press 
       0         1000   -148173.19            0   -144036.99    7019.4434 
     100    428.63221   -145807.54            0   -144034.63   -14432.704 
     200    544.38655   -146286.19            0    -144034.5   -1832.5182 
     300    495.83341   -146085.12            0   -144034.25   -3932.6893 
     400    497.73467    -146092.9            0   -144034.17   -2835.7295 
     500    480.34012    -146020.9            0   -144034.12    -3026.114 
     600    468.04789   -145970.06            0   -144034.12   -4697.7696 
     700    501.28129   -146107.59            0   -144034.19   -2304.3219 
     800    487.27237   -146049.63            0   -144034.18   -3862.6126 
     900    494.28051   -146078.64            0   -144034.19   -2848.8301 
    1000    479.61419   -146017.94            0   -144034.16   -3799.5387 
    1100    486.37692   -146045.91            0   -144034.16   -3255.3545 
    1200    488.36588   -146054.14            0   -144034.16   -2881.3036 
    1300    487.14944   -146049.12            0   -144034.18   -3445.0881 
    1400    488.09581   -146053.05            0   -144034.19   -3425.5282 
    1500    486.32529    -146045.7            0   -144034.17   -3375.9797 
    1600     491.0453   -146065.24            0   -144034.18   -3101.5989 
    1700    485.63359   -146042.83            0   -144034.15   -3119.4772 
    1800    482.76207   -146030.95            0   -144034.15   -3377.5741 
    1900    487.23065   -146049.44            0   -144034.16   -3067.6167 
    2000    488.60116   -146055.14            0   -144034.19   -3482.9903 
    2100     488.3706   -146054.16            0   -144034.16   -3067.2447 
    2200    485.20742   -146041.08            0   -144034.17   -3409.2783 
    2300    489.52758   -146058.96            0   -144034.18   -3144.5566 
    2400    488.47987   -146054.63            0   -144034.18   -3216.8007 
    2500    486.87625      -146048            0   -144034.18   -3277.8187 
    2600    489.66118   -146059.51            0   -144034.17   -3002.9709 
    2700    483.85033   -146035.47            0   -144034.17   -3369.0533 
    2800    491.01962   -146065.15            0   -144034.19    -3055.585 
    2900    485.26643   -146041.32            0   -144034.16   -3176.2413 
    3000     491.3783   -146066.62            0   -144034.19    -3198.193 
    3100    488.29464   -146053.87            0   -144034.19   -3362.5704 
    3200    488.39554   -146054.28            0   -144034.18    -3232.896 
    3300    485.77255   -146043.42            0   -144034.17   -3356.8958 
    3400    491.05777    -146065.3            0   -144034.19   -3093.6088 
    3500     486.9687   -146048.37            0   -144034.18   -3301.5889 
    3600    491.93473   -146068.94            0    -144034.2   -3216.5278 
    3700     488.4243   -146054.41            0   -144034.19   -3464.1812 
    3800     490.4322    -146062.7            0   -144034.18   -2970.3202 
    3900    484.38484   -146037.67            0   -144034.16   -3331.1169 
    4000    486.09515   -146044.74            0   -144034.16   -3167.5763 
    4100     489.1923   -146057.58            0   -144034.18   -3094.8482 
    4200    483.97959      -146036            0   -144034.17   -3357.1071 
    4300    490.21299   -146061.79            0   -144034.18   -3074.5681 
    4400    485.22415   -146041.15            0   -144034.17   -3468.6084 
    4500    491.55457   -146067.34            0   -144034.18   -2938.8934 
    4600    483.99931   -146036.09            0   -144034.17   -3601.4686 
    4700    491.23193   -146066.01            0   -144034.18   -2948.9696 
    4800    483.17069   -146032.65            0   -144034.16   -3420.6906 
    4900    488.14103   -146053.22            0   -144034.17   -3032.5301 
    5000     487.5758   -146050.87            0   -144034.16   -3068.6413 
    5100    483.78223   -146035.19            0   -144034.17   -3528.1243 
    5200    491.70309   -146067.95            0   -144034.17   -2840.7316 
    5300    484.48383   -146038.09            0   -144034.17   -3502.5251 
    5400    490.85676   -146064.46            0   -144034.18   -3108.2911 
    5500    486.37754   -146045.93            0   -144034.18   -3283.3992 
    5600    491.70503   -146067.98            0   -144034.19   -3037.9209 
    5700    485.18978      -146041            0   -144034.16   -3320.2456 
    5800    485.31779   -146041.53            0   -144034.16   -3277.1152 
    5900    488.84052    -146056.1            0   -144034.16   -2977.4066 
    6000    486.86039   -146047.92            0   -144034.17    -3204.791 
    6100    484.81294   -146039.44            0   -144034.16   -3244.7829 
    6200    490.56261   -146063.25            0   -144034.19   -3133.7232 
    6300    485.41552   -146041.94            0   -144034.17   -3309.7954 
    6400    490.65542   -146063.63            0   -144034.18   -2978.3277 
    6500    487.08269   -146048.85            0   -144034.18   -3307.5324 
    6600    487.84757   -146052.01            0   -144034.18   -3076.8019 
    6700    484.17799   -146036.82            0   -144034.16   -3406.2661 
    6800    487.19571    -146049.3            0   -144034.16   -2909.1892 
    6900     486.5251   -146046.53            0   -144034.17   -3250.6904 
    7000    486.02563   -146044.47            0   -144034.17   -3018.7053 
    7100     487.4117    -146050.2            0   -144034.17   -3012.5517 
    7200    488.05538   -146052.87            0   -144034.18   -3013.8569 
    7300    487.09513    -146048.9            0   -144034.18   -3121.4982 
    7400    486.87581   -146047.98            0   -144034.17    -3153.127 
    7500    486.34534   -146045.79            0   -144034.17   -3120.2788 
    7600    485.97166   -146044.24            0   -144034.17   -3027.1426 
    7700    485.98883   -146044.32            0   -144034.18   -3293.3327 
    7800    490.09658   -146061.32            0   -144034.19   -3018.9256 
    7900    489.16677   -146057.48            0   -144034.19   -3128.2349 
    8000     487.7649   -146051.66            0   -144034.17   -3046.7759 
    8100    485.86988   -146043.83            0   -144034.17   -3076.5598 
    8200    487.23857    -146049.5            0   -144034.18     -3221.53 
    8300    487.64421   -146051.17            0   -144034.18   -3126.0244 
    8400    488.18809   -146053.42            0   -144034.18   -3171.3597 
    8500     488.2582   -146053.71            0   -144034.18   -3261.1026 
    8600    485.57714   -146042.61            0   -144034.17   -3400.6841 
    8700    491.68482    -146067.9            0   -144034.19   -3122.9374 
    8800    488.09521   -146053.03            0   -144034.18   -3281.5748 
    8900    485.92721   -146044.05            0   -144034.16    -3225.664 
    9000    489.82014   -146060.17            0   -144034.18   -3032.6201 
    9100    484.26891   -146037.19            0   -144034.16   -3319.0626 
    9200    488.79503   -146055.93            0   -144034.18   -3074.7852 
    9300    487.45483   -146050.39            0   -144034.18   -3246.9157 
    9400    488.68639   -146055.49            0   -144034.18   -3164.3147 
    9500    487.73993   -146051.57            0   -144034.18   -3062.4108 
    9600    483.37546   -146033.49            0   -144034.15   -3364.3063 
    9700    489.55292   -146059.05            0   -144034.16   -2911.0275 
    9800    485.28589    -146041.4            0   -144034.16    -3189.733 
    9900    486.77931   -146047.59            0   -144034.18   -3289.8567 
   10000    487.13658   -146049.05            0   -144034.16   -2980.9304 
   10100    484.84671    -146039.6            0   -144034.18   -3387.0871 
   10200    489.48102   -146058.77            0   -144034.18   -3056.0679 
   10300    486.34495   -146045.79            0   -144034.17   -3095.3314 
   10400    485.46928   -146042.17            0   -144034.18   -3136.3842 
   10500    489.52704   -146058.97            0   -144034.19   -3006.8309 
   10600     486.8732   -146047.98            0   -144034.18   -3190.7223 
   10700    487.56498   -146050.85            0   -144034.18   -2997.1466 
   10800    490.08355   -146061.28            0   -144034.19   -3021.0982 
   10900    486.22847    -146045.3            0   -144034.17   -3133.3939 
   11000    486.75923   -146047.49            0   -144034.16   -3087.6728 
   11100    484.72009   -146039.06            0   -144034.16   -3204.2701 
   11200    486.87745      -146048            0   -144034.17   -3159.9453 
   11300    487.06299   -146048.76            0   -144034.17   -3153.3067 
   11400    487.76307   -146051.66            0   -144034.18   -2989.4613 
   11500    485.91331   -146044.02            0   -144034.18   -3199.1451 
   11600    490.65753   -146063.64            0   -144034.19   -2823.5282 
   11700    486.21879   -146045.27            0   -144034.18   -3152.1502 
   11800    487.79636    -146051.8            0   -144034.18   -2951.1276 
   11900    488.47338    -146054.6            0   -144034.18   -2890.0481 
   12000    488.08919   -146053.02            0   -144034.18   -2982.9703 
   12100    486.55429   -146046.67            0   -144034.18   -3076.2518 
   12200     488.1245   -146053.16            0   -144034.18     -2955.91 
   12300    487.64206   -146051.17            0   -144034.19   -3071.4036 
   12400    488.75382   -146055.77            0   -144034.19   -3044.5496 
   12500    488.69883   -146055.55            0   -144034.19   -3028.2201 
   12600    487.49063   -146050.53            0   -144034.18   -2823.4385 
   12700    484.75821   -146039.22            0   -144034.17   -2976.8017 
   12800    488.39702   -146054.29            0   -144034.19   -2857.2377 
   12900    487.55937   -146050.83            0   -144034.18   -3099.1009 
   13000    488.34457   -146054.08            0   -144034.19   -2982.6728 
   13100    489.37723   -146058.35            0   -144034.19   -3007.7904 
   13200    488.05916    -146052.9            0   -144034.19   -3063.8864 
   13300    488.33927   -146054.04            0   -144034.17   -2888.6927 
   13400    487.63443   -146051.14            0   -144034.19   -3171.9631 
   13500    487.22983   -146049.45            0   -144034.17   -3133.7068 
   13600    485.73503   -146043.26            0   -144034.16   -3034.6234 
   13700    484.66592   -146038.84            0   -144034.17    -3156.615 
   13800    489.72896   -146059.79            0   -144034.17   -2982.5752 
   13900    485.42496   -146041.99            0   -144034.17    -3219.145 
   14000    488.04033   -146052.81            0   -144034.18   -3100.0698 
   14100    488.95649   -146056.61            0   -144034.19   -3018.5623 
   14200    487.53959   -146050.73            0   -144034.17   -2977.0007 
   14300    487.21871    -146049.4            0   -144034.17   -2998.4339 
   14400    483.30066   -146033.19            0   -144034.16   -3098.1325 
   14500    489.51521   -146058.91            0   -144034.18   -2828.3487 
   14600    483.64055    -146034.6            0   -144034.17   -3294.7373 
   14700    488.51752   -146054.78            0   -144034.18   -2964.0896 
   14800    485.97174   -146044.24            0   -144034.17   -3254.4795 
   14900     490.2672   -146062.02            0   -144034.18   -2947.3718 
   15000    485.72799   -146043.25            0   -144034.19   -3295.2624 
   15100    488.60314   -146055.15            0   -144034.19   -3064.5967 
   15200    487.99727   -146052.64            0   -144034.18   -3053.3048 
   15300    488.06683   -146052.91            0   -144034.17    -2976.341 
   15400    489.13538   -146057.37            0   -144034.21   -3145.8573 
   15500    487.69817    -146051.4            0   -144034.18   -3150.5278 
   15600    486.88494   -146048.03            0   -144034.18   -3187.2417 
   15700     489.8142   -146060.15            0   -144034.18    -2943.479 
   15800    485.86313   -146043.79            0   -144034.17   -3028.3231 
   15900    485.50325    -146042.3            0   -144034.16   -3091.0791 
   16000    486.89317   -146048.05            0   -144034.16   -2920.7834 
   16100    487.53053    -146050.7            0   -144034.18   -3050.6146 
   16200    485.24182   -146041.22            0   -144034.16    -3000.704 
   16300    487.52737   -146050.69            0   -144034.18   -3121.9109 
   16400    486.03047   -146044.49            0   -144034.17   -2905.6977 
   16500    486.61075    -146046.9            0   -144034.18   -3253.2597 
   16600    491.04268   -146065.25            0    -144034.2   -2892.3142 
   16700    487.07425   -146048.81            0   -144034.18   -3198.4331 
   16800    490.58599   -146063.36            0    -144034.2   -3086.7485 
   16900    489.77341   -146059.99            0   -144034.19   -2985.6315 
   17000    487.38929   -146050.13            0   -144034.19   -3123.2451 
   17100     489.0413   -146056.96            0   -144034.19   -3010.0774 
   17200    487.40672   -146050.19            0   -144034.18    -3138.851 
   17300    488.71225    -146055.6            0   -144034.19    -3089.484 
   17400    487.73328   -146051.54            0   -144034.18   -3012.3064 
   17500    487.76749   -146051.67            0   -144034.17   -3066.6891 
   17600    487.09424   -146048.89            0   -144034.17   -3019.6925 
   17700    486.89783   -146048.08            0   -144034.18   -3223.7935 
   17800     486.9804   -146048.42            0   -144034.17   -3016.6651 
   17900    486.87765      -146048            0   -144034.18   -3180.0499 
   18000    485.60872   -146042.75            0   -144034.17   -3123.1577 
   18100    487.62583   -146051.09            0   -144034.18    -3052.094 
   18200    488.57232   -146055.02            0   -144034.19   -3169.0638 
   18300    488.18195    -146053.4            0   -144034.18   -2976.2485 
   18400    485.80323   -146043.56            0   -144034.18   -3239.2059 
   18500    490.32542   -146062.28            0    -144034.2   -3095.4789 
   18600    488.01945   -146052.74            0   -144034.19   -3103.9705 
   18700    489.24258   -146057.79            0   -144034.18   -2897.6402 
   18800    484.40622   -146037.76            0   -144034.17    -3219.432 
   18900    486.56929   -146046.72            0   -144034.18   -2992.9698 
   19000    491.11456   -146065.53            0   -144034.18   -2926.8315 
   19100    484.13038   -146036.62            0   -144034.16   -3184.5849 
   19200    484.93748   -146039.96            0   -144034.17   -2944.6027 
   19300    488.56781      -146055            0   -144034.19   -3006.1977 
   19400    486.72131   -146047.36            0   -144034.18   -3155.1539 
   19500    489.78386   -146060.03            0   -144034.19   -2904.2506 
   19600    486.25854   -146045.43            0   -144034.17   -3070.9171 
   19700    489.27028    -146057.9            0   -144034.19    -3046.946 
   19800    488.35488   -146054.11            0   -144034.18    -2986.956 
   19900    484.78206   -146039.31            0   -144034.15   -3138.7665 
   20000    486.17546   -146045.09            0   -144034.17   -3069.7022 
   20100     485.7216    -146043.2            0   -144034.16    -3083.345 
   20200    487.24853   -146049.54            0   -144034.19   -3207.3795 
   20300    489.37344   -146058.33            0   -144034.18   -2890.5271 
   20400    484.45248   -146037.95            0   -144034.16   -3244.0333 
   20500    485.54165   -146042.47            0   -144034.18   -3134.3219 
   20600    488.74087   -146055.72            0   -144034.19   -3098.3544 
   20700    486.65933    -146047.1            0   -144034.18   -3049.2594 
   20800    489.69632   -146059.69            0   -144034.21   -3037.3742 
   20900    488.41706   -146054.39            0    -144034.2    -2985.111 
   21000    487.75539   -146051.65            0    -144034.2   -3080.5668 
   21100     486.1629   -146045.03            0   -144034.17   -2867.5316 
   21200    487.49749   -146050.57            0   -144034.18   -2952.2621 
   21300    485.47418   -146042.18            0   -144034.17   -3072.3541 
   21400    486.17713   -146045.11            0   -144034.19    -3104.107 
   21500    486.02929   -146044.49            0   -144034.18   -3094.4649 
   21600    490.59052   -146063.38            0    -144034.2    -2866.619 
   21700    487.27429   -146049.64            0   -144034.17   -3132.9419 
   21800    487.23701   -146049.48            0   -144034.17   -3060.2737 
   21900    486.71054   -146047.31            0   -144034.19   -3160.9599 
   22000    490.89342   -146064.62            0   -144034.19   -3004.6007 
   22100    487.11789   -146049.01            0    -144034.2   -3168.0706 
   22200    486.93517   -146048.25            0   -144034.19   -3091.1817 
   22300    490.90497   -146064.69            0   -144034.22    -2961.847 
   22400    488.69816   -146055.55            0    -144034.2   -3148.7071 
   22500     487.8981   -146052.24            0    -144034.2   -3086.7262 
   22600    488.19008   -146053.44            0   -144034.19   -3069.7733 
   22700    487.53491   -146050.72            0   -144034.18   -3033.7829 
   22800    486.69146   -146047.23            0   -144034.18   -3135.6174 
   22900    485.86443   -146043.81            0   -144034.18   -3107.6258 
   23000    488.76332   -146055.81            0   -144034.19   -3116.6484 
   23100    487.17702   -146049.23            0   -144034.18   -3154.4451 
   23200    487.70195   -146051.41            0   -144034.18   -2986.8731 
   23300    485.46074   -146042.14            0   -144034.18   -3154.5588 
   23400    489.64964   -146059.48            0   -144034.19   -3004.6395 
   23500    487.67252    -146051.3            0   -144034.19    -3063.579 
   23600    485.25995   -146041.31            0   -144034.18   -3042.7388 
   23700    487.64041   -146051.15            0   -144034.18   -3007.3831 
   23800    489.67402   -146059.58            0    -144034.2   -3160.2388 
   23900     487.3342    -146049.9            0   -144034.19   -3141.6342 
   24000    488.08309   -146052.99            0   -144034.19   -3051.1925 
   24100    487.11808   -146049.01            0   -144034.19   -3113.2719 
   24200    488.65146   -146055.35            0   -144034.19   -3165.1584 
   24300    485.68802   -146043.08            0   -144034.17   -3078.6891 
   24400    488.27324   -146053.79            0    -144034.2   -3128.3551 
   24500    486.65596   -146047.07            0   -144034.17   -3076.5084 
   24600    486.08328   -146044.72            0   -144034.18    -3164.868 
   24700    486.34824    -146045.8            0   -144034.17   -2980.7715 
   24800     486.9579   -146048.33            0   -144034.18   -3088.0976 
   24900    488.94233   -146056.55            0   -144034.19   -3031.4077 
   25000    486.14986   -146044.99            0   -144034.18   -3152.0594 
   25100    487.69199   -146051.39            0    -144034.2   -3279.5383 
   25200    488.46418   -146054.57            0   -144034.19   -3053.9698 
   25300    488.68374   -146055.48            0   -144034.18   -3056.6386 
   25400    484.04564   -146036.28            0   -144034.17   -3033.1039 
   25500    487.29823   -146049.74            0   -144034.18   -3121.1304 
   25600    488.97153   -146056.66            0   -144034.18   -3054.8155 
   25700    485.96419   -146044.22            0   -144034.18   -3069.5008 
   25800    485.90307   -146043.96            0   -144034.17   -3183.1072 
   25900    487.47526   -146050.47            0   -144034.18   -3120.9204 
   26000     488.9068   -146056.41            0   -144034.19   -3112.1123 
   26100    486.95223    -146048.3            0   -144034.17   -3023.0102 
   26200    487.86454   -146052.09            0   -144034.19   -3148.7843 
   26300    485.05658   -146040.46            0   -144034.17   -3127.1014 
   26400    492.06568    -146069.5            0   -144034.22   -3089.7415 
   26500    486.77426   -146047.57            0   -144034.18   -3129.0869 
   26600    485.35774   -146041.71            0   -144034.18   -3072.1828 
   26700    492.04148   -146069.39            0   -144034.21   -3014.1504 
   26800    486.56197    -146046.7            0   -144034.18   -3197.5649 
   26900    487.14073   -146049.09            0   -144034.18   -3126.8742 
   27000    489.48835   -146058.81            0   -144034.19   -2949.6779 
   27100     487.6812   -146051.33            0   -144034.19   -3216.1064 
   27200    486.57427   -146046.75            0   -144034.18   -3039.1295 
   27300    487.07211    -146048.8            0   -144034.18     -2965.59 
   27400    485.91186   -146044.01            0   -144034.18   -3088.6159 
   27500    489.38479   -146058.39            0    -144034.2   -2876.4756 
   27600    488.75604    -146055.8            0   -144034.21   -3176.0722 
   27700    490.42676    -146062.7            0    -144034.2   -2834.2016 
   27800    485.46544   -146042.17            0   -144034.19   -3182.1364 
   27900    491.13486   -146065.63            0    -144034.2   -2852.0357 
   28000    486.17501    -146045.1            0   -144034.18   -2995.2868 
   28100    487.56105   -146050.84            0   -144034.19   -2966.0684 
   28200    487.47178   -146050.47            0   -144034.19   -3038.4063 
   28300    485.45875   -146042.13            0   -144034.18   -3077.0764 
   28400    489.73783   -146059.85            0    -144034.2   -2835.0368 
   28500    487.42029   -146050.26            0    -144034.2   -3182.1572 
   28600     486.4543   -146046.26            0   -144034.19   -2928.3397 
   28700    486.77866   -146047.59            0   -144034.17   -2839.1947 
   28800    487.13232   -146049.06            0   -144034.18   -2958.5554 
   28900    486.01081   -146044.41            0   -144034.17   -3020.6899 
   29000    488.19595   -146053.47            0    -144034.2     -3145.64 
   29100    491.98485   -146069.15            0   -144034.21   -2911.9471 
   29200    487.86686   -146052.11            0    -144034.2   -3054.5014 
   29300    485.47675   -146042.21            0   -144034.18     -3156.94 
   29400    488.87445   -146056.28            0    -144034.2   -3007.5678 
   29500    487.90675   -146052.27            0   -144034.19   -2902.5069 
   29600    487.03344   -146048.65            0   -144034.19   -2960.5784 
   29700    486.79262   -146047.66            0   -144034.19   -3101.8351 
   29800    488.01333   -146052.71            0   -144034.19   -2947.0669 
   29900    488.85595    -146056.2            0    -144034.2   -3132.7153 
   30000    487.84872   -146052.03            0   -144034.19   -2935.5936 
   30100    486.04176   -146044.54            0   -144034.18   -3009.4043 
   30200    488.04329   -146052.83            0   -144034.19   -2887.7392 
   30300    487.21004   -146049.38            0   -144034.19   -2864.1291 
   30400    485.81888   -146043.63            0   -144034.19   -3047.7353 
   30500    485.19708   -146041.04            0   -144034.17   -2903.4008 
   30600    488.50935   -146054.76            0   -144034.19   -2773.7657 
   30700    486.05668   -146044.61            0   -144034.19   -2967.4877 
   30800    485.70752   -146043.16            0   -144034.18   -2952.1336 
   30900    486.90902   -146048.12            0   -144034.17     -2790.87 
   31000    486.74594   -146047.45            0   -144034.18   -2940.2145 
   31100    485.41942   -146041.97            0   -144034.18   -3082.6436 
   31200    488.51067   -146054.77            0   -144034.19   -2870.1481 
   31300    487.12389   -146049.03            0   -144034.19   -2969.6917 
   31400    485.78497   -146043.47            0   -144034.17   -2806.4652 
   31500    486.77145   -146047.57            0   -144034.18   -2846.6572 
   31600    486.48335   -146046.38            0   -144034.19   -2965.9471 
   31700    485.88509    -146043.9            0   -144034.19   -3048.6764 
   31800    488.38829   -146054.25            0   -144034.18   -2797.3899 
   31900    485.33562   -146041.63            0   -144034.18   -3017.5891 
   32000    486.08612   -146044.73            0   -144034.18   -2951.7837 
   32100    485.98473   -146044.32            0   -144034.19   -2957.8139 
   32200    489.29362   -146058.01            0    -144034.2   -2894.2053 
   32300    484.22033   -146037.01            0   -144034.18   -3016.7685 
   32400    485.58756   -146042.67            0   -144034.19   -2939.6214 
   32500    488.22756   -146053.61            0   -144034.21   -2983.6808 
   32600    488.50465   -146054.75            0    -144034.2   -2815.3309 
   32700    488.81655   -146056.04            0    -144034.2   -2954.6444 
   32800    483.62517   -146034.54            0   -144034.17   -2924.6368 
   32900    491.02309   -146065.17            0   -144034.21   -2960.1726 
   33000     485.4019    -146041.9            0   -144034.18   -3002.7973 
   33100    490.44019   -146062.77            0   -144034.21   -3038.0429 
   33200    486.05085   -146044.58            0   -144034.18   -2952.9882 
   33300    485.88395   -146043.89            0   -144034.18   -3016.1361 
   33400     487.0982   -146048.92            0   -144034.18   -2883.4769 
   33500     486.4664   -146046.31            0   -144034.19   -2992.7647 
   33600    486.05417    -146044.6            0   -144034.18   -2801.1849 
   33700    484.73581   -146039.15            0   -144034.19   -2981.9761 
   33800    489.24747   -146057.82            0    -144034.2   -2830.5168 
   33900    488.84783   -146056.17            0    -144034.2   -2779.6715 
   34000    483.23861   -146032.95            0   -144034.19   -2979.2309 
   34100     488.7665   -146055.83            0    -144034.2   -2767.7592 
   34200    487.80161   -146051.84            0    -144034.2   -2868.4511 
   34300     486.7086   -146047.31            0   -144034.19   -2940.6362 
   34400    486.92255    -146048.2            0   -144034.19   -2840.0172 
   34500    486.41483   -146046.11            0    -144034.2   -3025.9739 
   34600    487.72527   -146051.53            0    -144034.2    -2847.845 
   34700    489.48194    -146058.8            0   -144034.21   -2917.6077 
   34800    489.34286   -146058.23            0   -144034.21   -2908.4505 
   34900    486.62729   -146046.98            0   -144034.19   -2951.2365 
   35000      488.175   -146053.37            0   -144034.18   -2763.7197 
   35100    485.07879   -146040.57            0   -144034.19   -3084.9682 
   35200    487.06503   -146048.78            0   -144034.19   -2831.2661 
   35300     488.1208   -146053.16            0   -144034.19   -2913.4755 
   35400    483.76192   -146035.12            0   -144034.19   -3088.4017 
   35500    489.78434   -146060.03            0   -144034.19   -2769.5004 
   35600    483.53956   -146034.19            0   -144034.18   -3254.2131 
   35700    488.31692   -146053.95            0   -144034.18   -2735.7862 
   35800    487.89864   -146052.25            0    -144034.2   -3058.6472 
   35900    486.77202   -146047.59            0    -144034.2   -3150.9495 
   36000    487.82282   -146051.92            0   -144034.19   -2814.5618 
   36100    486.65752   -146047.11            0   -144034.19    -3011.692 
   36200    488.23135   -146053.62            0    -144034.2   -2922.5657 
   36300    488.65709   -146055.37            0   -144034.19   -2878.2239 
   36400    485.22021   -146041.14            0   -144034.18   -3072.7246 
   36500    489.52871   -146058.98            0    -144034.2   -2890.7231 
   36600    488.35183   -146054.13            0   -144034.21   -3051.5687 
   36700    490.12068   -146061.45            0   -144034.21    -2918.998 
   36800    486.89076   -146048.07            0   -144034.19   -3083.3701 
   36900    486.89423   -146048.08            0   -144034.19    -3061.354 
   37000    490.25484   -146061.99            0    -144034.2   -3013.2201 
   37100    487.86923   -146052.12            0   -144034.19   -2901.3472 
   37200    485.52442    -146042.4            0   -144034.18   -3028.9913 
   37300    486.58236   -146046.79            0   -144034.19   -2979.7408 
   37400      489.558   -146059.11            0    -144034.2   -2873.8407 
   37500    486.09121   -146044.75            0   -144034.18   -2762.1002 
   37600    487.27587   -146049.66            0   -144034.19   -3001.6509 
   37700    485.68675   -146043.08            0   -144034.19   -2887.7924 
   37800    487.97778   -146052.57            0    -144034.2   -3039.8028 
   37900    487.11922      -146049            0   -144034.18   -2783.0594 
   38000    482.83366   -146031.26            0   -144034.16   -3081.5635 
   38100    486.73778   -146047.42            0   -144034.17   -2802.8393 
   38200    485.01694    -146040.3            0   -144034.17   -3039.2379 
   38300    487.44214   -146050.34            0   -144034.19   -2975.0171 
   38400    488.78987   -146055.93            0    -144034.2   -2987.9008 
   38500    487.94801   -146052.44            0   -144034.19   -2994.7406 
   38600    486.73756   -146047.43            0   -144034.18   -2959.6301 
   38700    486.94384   -146048.28            0   -144034.19   -3017.7038 
   38800     489.5965   -146059.26            0   -144034.19   -2896.1651 
   38900     486.4638   -146046.29            0   -144034.18   -3199.8573 
   39000    488.45013   -146054.51            0   -144034.19   -2842.6325 
   39100    487.36043   -146050.02            0    -144034.2   -3105.2103 
   39200    485.28248   -146041.41            0   -144034.19   -3026.9898 
   39300    490.41725   -146062.66            0    -144034.2   -2904.8234 
   39400    485.52511   -146042.42            0   -144034.19   -3228.3737 
   39500    490.00113   -146060.95            0   -144034.21   -2854.1578 
   39600    487.08401   -146048.87            0   -144034.19   -3061.5799 
   39700    486.77707   -146047.59            0   -144034.19   -3041.8408 
   39800    488.39384    -146054.3            0    -144034.2   -3033.9565 
   39900    486.84143   -146047.86            0   -144034.19   -2949.7489 
   40000    487.16164   -146049.19            0   -144034.19   -2995.4147 
   40100    488.25702   -146053.72            0   -144034.19   -2895.6017 
   40200    485.93845   -146044.11            0   -144034.18   -2975.2339 
   40300    485.91077      -146044            0   -144034.18   -3029.0831 
   40400    487.75159   -146051.62            0   -144034.19   -2949.0487 
   40500    487.90314   -146052.26            0   -144034.19   -2954.6225 
   40600    488.79862   -146055.97            0   -144034.21   -3121.1282 
   40700    488.64292   -146055.32            0    -144034.2   -2977.6572 
   40800    489.19452   -146057.61            0    -144034.2   -2934.0539 
   40900    488.41706   -146054.38            0    -144034.2   -2850.9241 
   41000    484.81984    -146039.5            0   -144034.19   -2985.6798 
   41100    488.83327   -146056.12            0   -144034.21   -2919.5778 
   41200    489.29725   -146058.04            0   -144034.21   -2944.4161 
   41300    484.80249   -146039.41            0   -144034.18   -2929.5028 
   41400    485.25813   -146041.31            0   -144034.19   -2912.7707 
   41500    487.23444   -146049.49            0   -144034.19    -2911.769 
   41600    488.27588    -146053.8            0    -144034.2   -2893.7887 
   41700    487.15711   -146049.17            0   -144034.19   -2905.3923 
   41800    487.61263   -146051.05            0   -144034.19   -3028.5339 
   41900    486.03305   -146044.49            0   -144034.17    -2807.823 
   42000    485.77567   -146043.45            0   -144034.18   -2995.4443 
   42100    487.91772    -146052.3            0   -144034.18   -2768.2582 
   42200    485.36433   -146041.74            0   -144034.18   -3032.2465 
   42300    489.54085   -146059.04            0    -144034.2   -2811.8581 
   42400     487.9044   -146052.26            0   -144034.19   -2996.8516 
   42500    486.26901    -146045.5            0    -144034.2    -2934.512 
   42600    487.30992    -146049.8            0    -144034.2   -2946.6688 
   42700     486.6777   -146047.18            0   -144034.19   -2900.7206 
   42800    487.97458   -146052.54            0   -144034.18   -2885.0155 
   42900    486.28792   -146045.57            0   -144034.19   -2960.8608 
   43000     489.4108    -146058.5            0    -144034.2   -2904.2233 
   43100    488.85336    -146056.2            0    -144034.2   -3048.2133 
   43200    486.58613    -146046.8            0   -144034.18   -2822.2342 
   43300    485.86114    -146043.8            0   -144034.18    -2932.969 
   43400    486.73844   -146047.44            0   -144034.19   -3025.0492 
   43500    485.78892   -146043.49            0   -144034.17   -2901.1863 
   43600    485.80265   -146043.56            0   -144034.19   -3032.8076 
   43700    486.52135   -146046.52            0   -144034.17   -2826.3979 
   43800    486.81408   -146047.75            0   -144034.19   -2932.3939 
   43900     486.3867   -146045.98            0   -144034.19   -3025.8394 
   44000    485.76421    -146043.4            0   -144034.18   -2990.7476 
   44100    485.66456   -146042.99            0   -144034.19   -2899.7789 
   44200    489.08706   -146057.16            0    -144034.2   -2910.1692 
   44300    486.12092   -146044.89            0   -144034.19   -3060.8997 
   44400    488.95823   -146056.63            0   -144034.21   -2821.3138 
   44500    488.79891   -146055.96            0    -144034.2   -2997.0488 
   44600    485.28583   -146041.42            0   -144034.18    -2782.213 
   44700    487.88896    -146052.2            0   -144034.19   -2966.8318 
   44800    485.46136   -146042.16            0   -144034.19   -3027.5451 
   44900    487.23549    -146049.5            0    -144034.2    -2962.192 
   45000    486.34444    -146045.8            0   -144034.18   -2973.9932 
   45100    485.24223   -146041.24            0   -144034.18   -3050.2037 
   45200    487.70844   -146051.44            0   -144034.18   -2897.3119 
   45300    486.69271   -146047.26            0    -144034.2   -3192.6988 
   45400    485.44712   -146042.09            0   -144034.18   -2989.0755 
   45500    487.31747   -146049.83            0   -144034.19   -3054.7784 
   45600    486.23484   -146045.34            0   -144034.18   -2928.6824 
   45700    489.28291   -146057.97            0    -144034.2    -2945.346 
   45800    487.82395   -146051.94            0   -144034.21    -3166.468 
   45900    487.65363   -146051.22            0   -144034.19   -3053.8226 
   46000    488.38705   -146054.27            0   -144034.21   -3010.1258 
   46100    485.64147   -146042.89            0   -144034.18   -3045.3425 
   46200    486.85399   -146047.91            0   -144034.19   -2943.7652 
   46300    486.62483   -146046.97            0    -144034.2   -3123.4002 
   46400    490.02236   -146061.03            0    -144034.2   -2921.9649 
   46500    485.61978   -146042.81            0   -144034.19   -3005.4917 
   46600    488.01292   -146052.71            0    -144034.2   -3007.3933 
   46700    488.55731   -146054.96            0   -144034.19   -2919.1834 
   46800    486.27445   -146045.51            0   -144034.19   -2964.1525 
   46900    485.24752   -146041.26            0   -144034.18   -3055.1321 
   47000    487.41446   -146050.23            0   -144034.19   -3003.4718 
   47100    490.65183   -146063.65            0   -144034.22   -3022.4932 
   47200    489.11021   -146057.26            0    -144034.2   -3101.2095 
   47300    486.80091    -146047.7            0   -144034.19   -3182.8752 
   47400    487.80051   -146051.83            0    -144034.2   -2959.3556 
   47500    488.16958   -146053.35            0   -144034.19   -2897.7033 
   47600    486.72676   -146047.39            0   -144034.19   -3032.2325 
   47700    485.93077   -146044.09            0   -144034.18   -2875.9617 
   47800    488.05456   -146052.88            0   -144034.19   -3013.6414 
   47900    489.84762   -146060.31            0   -144034.21    -2973.593 
   48000    487.72088   -146051.51            0    -144034.2   -3084.6069 
   48100    490.64213   -146063.61            0   -144034.21   -2944.6372 
   48200    491.27921   -146066.25            0   -144034.23    -3021.968 
   48300    487.01011   -146048.57            0   -144034.21   -3160.8338 
   48400    488.63782   -146055.29            0   -144034.19   -2714.9185 
   48500    487.26576   -146049.63            0    -144034.2   -3080.2993 
   48600    487.66254   -146051.27            0   -144034.21   -3038.3563 
   48700    487.94429   -146052.43            0   -144034.19   -2865.1946 
   48800    490.28095    -146062.1            0   -144034.21   -2814.7132 
   48900      485.724   -146043.24            0   -144034.19   -3138.4577 
   49000     487.5903   -146050.96            0   -144034.19    -2772.101 
   49100    483.88308   -146035.61            0   -144034.17   -2943.5022 
   49200    485.49835    -146042.3            0   -144034.18   -2784.4548 
   49300    485.34176   -146041.65            0   -144034.18   -2840.8336 
   49400    487.25846   -146049.58            0   -144034.19    -2832.004 
   49500    487.10181   -146048.94            0   -144034.19   -2960.4839 
   49600     485.6307   -146042.85            0   -144034.18   -2927.1191 
   49700     486.2236    -146045.3            0   -144034.18   -2888.1848 
   49800    488.53355   -146054.87            0    -144034.2   -2947.4352 
   49900    486.49729   -146046.44            0   -144034.19   -3003.9277 
   50000    488.17657   -146053.39            0   -144034.19   -2811.8116 
   50100    487.41292   -146050.23            0   -144034.19   -3005.4103 
   50200    487.63818   -146051.16            0   -144034.19   -3057.1424 
   50300    488.58273   -146055.08            0    -144034.2   -2959.8659 
   50400    487.83502   -146051.97            0   -144034.19   -2947.5855 
   50500    488.67752   -146055.46            0    -144034.2   -3029.2968 
   50600    486.13005   -146044.91            0   -144034.18   -2978.6149 
   50700    485.16769   -146040.94            0   -144034.19   -3046.5714 
   50800     488.5345   -146054.87            0   -144034.19   -2886.0218 
   50900    484.85446   -146039.63            0   -144034.18   -3058.5214 
   51000     486.6118   -146046.92            0    -144034.2   -3184.0914 
   51100    490.60138   -146063.42            0    -144034.2   -2967.6767 
   51200    485.96921   -146044.25            0   -144034.18   -3044.7518 
   51300    487.28214   -146049.68            0   -144034.18   -2925.6966 
   51400      483.915   -146035.75            0   -144034.18    -3129.706 
   51500    486.70311   -146047.28            0   -144034.18   -2891.6697 
   51600    487.28177   -146049.68            0   -144034.19     -3007.23 
   51700    486.70137   -146047.29            0    -144034.2   -3131.6258 
   51800    489.37228   -146058.33            0    -144034.2   -2916.6041 
   51900    487.90728   -146052.28            0    -144034.2   -3041.0148 
   52000    489.57794   -146059.19            0    -144034.2   -2957.2304 
   52100    488.60818   -146055.18            0    -144034.2   -3037.6531 
   52200    487.40787   -146050.21            0    -144034.2   -3083.2995 
   52300     487.9745   -146052.56            0   -144034.21    -3125.168 
   52400    487.69932   -146051.41            0   -144034.19   -2990.4876 
   52500    487.63061   -146051.12            0   -144034.18   -2848.6935 
   52600    485.46669   -146042.17            0   -144034.18   -3244.5927 
   52700    487.52382   -146050.68            0   -144034.18   -2938.5539 
   52800    487.44328   -146050.35            0   -144034.19   -2874.6202 
   52900    488.30419   -146053.93            0   -144034.21   -3013.0338 
   53000    488.32129   -146054.01            0   -144034.22   -3122.2564 
   53100    486.57817   -146046.76            0   -144034.18   -2909.1725 
   53200    487.87117   -146052.13            0    -144034.2   -2958.9761 
   53300    486.27075    -146045.5            0   -144034.18   -3077.2756 
   53400    487.25403   -146049.57            0   -144034.19   -2978.6895 
   53500    487.05489   -146048.74            0   -144034.18   -2940.0702 
   53600    487.37637   -146050.08            0    -144034.2   -2940.5921 
   53700    488.62787   -146055.26            0    -144034.2   -3072.5002 
   53800     484.9419   -146039.98            0   -144034.17   -3065.7544 
   53900    487.55946   -146050.82            0   -144034.18   -2971.1509 
   54000    485.83875    -146043.7            0   -144034.18   -3149.2066 
   54100    485.50222    -146042.3            0   -144034.16   -2980.0121 
   54200    486.59508   -146046.83            0   -144034.18   -3070.5654 
   54300    485.93506    -146044.1            0   -144034.17   -3068.3323 
   54400    487.69001   -146051.37            0   -144034.18   -2951.3068 
   54500    487.02399   -146048.62            0    -144034.2   -3114.1948 
   54600    487.17388   -146049.24            0   -144034.19   -3005.9157 
   54700    488.42183    -146054.4            0   -144034.19   -3041.5142 
   54800    488.24945   -146053.69            0   -144034.19   -3144.2275 
   54900    488.60096   -146055.14            0   -144034.19   -2975.2745 
   55000    487.63886   -146051.16            0   -144034.19   -2988.1928 
   55100    488.19903   -146053.48            0   -144034.19   -3113.8467 
   55200    489.38461   -146058.38            0   -144034.19   -2896.1796 
   55300    486.84259   -146047.87            0   -144034.19   -3242.8795 
   55400    490.18229    -146061.7            0   -144034.21   -3030.2273 
   55500    486.90957   -146048.14            0   -144034.19   -2959.2541 
   55600    487.64847   -146051.21            0    -144034.2   -3074.9556 
   55700    486.96117   -146048.35            0   -144034.18   -2934.1849 
   55800    489.13831   -146057.36            0   -144034.19   -3073.5051 
   55900    489.19524    -146057.6            0    -144034.2   -3057.5714 
   56000    486.94301   -146048.27            0   -144034.18   -3034.3358 
   56100    489.76578   -146059.96            0   -144034.19   -3023.8437 
   56200    486.14629   -146044.97            0   -144034.17   -2984.8208 
   56300    486.63697      -146047            0   -144034.17   -3162.7583 
   56400    488.75874   -146055.78            0   -144034.18   -2957.4202 
   56500    486.77113   -146047.56            0   -144034.18   -3175.4996 
   56600    485.66471   -146042.98            0   -144034.17   -3083.2385 
   56700    486.10425   -146044.79            0   -144034.17    -2976.526 
   56800    486.83983   -146047.84            0   -144034.17   -3078.2033 
   56900    487.50968   -146050.62            0   -144034.18   -3013.4723 
   57000    485.22874   -146041.19            0   -144034.19   -3068.2116 
   57100    488.02404   -146052.75            0   -144034.18   -2907.5951 
   57200    484.88906   -146039.78            0   -144034.18   -3173.7328 
   57300    488.80003   -146055.97            0    -144034.2   -3087.3916 
   57400     487.7032   -146051.42            0   -144034.19   -3112.6293 
   57500    487.43274    -146050.3            0   -144034.19   -2978.1095 
   57600    485.15424   -146040.87            0   -144034.17   -3164.4969 
   57700      489.083   -146057.12            0   -144034.18   -3016.6752 
   57800    487.32421   -146049.85            0   -144034.18   -3046.3149 
   57900    485.37044   -146041.77            0   -144034.18   -3235.0905 
   58000    487.02461   -146048.61            0   -144034.18   -3046.3275 
   58100     489.0705   -146057.09            0    -144034.2   -3057.2027 
   58200    487.83524   -146051.97            0   -144034.19   -3190.8226 
   58300    485.21629   -146041.12            0   -144034.17   -2966.7686 
   58400    487.17445   -146049.23            0   -144034.18    -2958.769 
   58500    485.94049   -146044.13            0   -144034.18   -3144.0292 
   58600    487.74007   -146051.57            0   -144034.18   -2997.2404 
   58700     487.9475   -146052.42            0   -144034.18   -3067.9048 
   58800    486.03194    -146044.5            0   -144034.18   -3105.2718 
   58900    490.15211   -146061.55            0   -144034.18   -2790.8165 
   59000     486.2715    -146045.5            0   -144034.18   -3197.1166 
   59100    488.63152   -146055.26            0   -144034.18   -3017.2252 
   59200    486.84336   -146047.86            0   -144034.18   -3011.0397 
   59300    487.48395   -146050.51            0   -144034.18   -2932.3494 
   59400    486.94798    -146048.3            0   -144034.19   -3117.4792 
   59500    489.44311   -146058.62            0   -144034.19   -2877.3518 
   59600    487.53192   -146050.72            0   -144034.19   -2915.9392 
   59700    489.91569    -146060.6            0   -144034.21    -3097.194 
   59800    486.97436   -146048.41            0   -144034.19   -3088.3895 
   59900    489.07082   -146057.09            0   -144034.19   -2809.8954 
   60000    485.71485    -146043.2            0   -144034.18    -3085.125 
   60100    489.59486   -146059.24            0   -144034.18   -2772.8549 
   60200    484.97378   -146040.11            0   -144034.17   -3063.5318 
   60300    485.99263   -146044.33            0   -144034.17   -2868.4444 
   60400    487.16268   -146049.19            0   -144034.19    -3062.451 
   60500    487.27647   -146049.65            0   -144034.18    -2992.726 
   60600     488.4383   -146054.46            0   -144034.18   -2967.7774 
   60700    488.77579   -146055.86            0   -144034.19   -2953.8643 
   60800    485.67258   -146043.02            0   -144034.18    -3007.148 
   60900    487.68909   -146051.37            0   -144034.19   -3045.2384 
   61000    488.53865   -146054.88            0   -144034.19   -3020.1258 
   61100    487.52205   -146050.67            0   -144034.18   -2924.0328 
   61200     488.5318   -146054.85            0   -144034.19   -3012.7637 
   61300    489.31379   -146058.08            0   -144034.18   -2808.5314 
   61400    487.50314    -146050.6            0   -144034.19   -3026.1738 
   61500    486.81785   -146047.75            0   -144034.18   -3012.2002 
   61600    487.71808   -146051.49            0   -144034.19   -2909.1152 
   61700    487.84234      -146052            0   -144034.18    -2806.872 
   61800    484.76837   -146039.28            0   -144034.18    -2944.959 
   61900    489.08526   -146057.13            0   -144034.18   -2864.6802 
   62000    485.98596   -146044.31            0   -144034.18    -2972.035 
   62100    488.56265   -146054.98            0   -144034.19   -3045.8629 
   62200    487.48853   -146050.53            0   -144034.19   -2931.2479 
   62300    488.31066   -146053.94            0   -144034.19   -3036.5244 
   62400    487.12002      -146049            0   -144034.18   -2799.2591 
   62500    487.26086   -146049.58            0   -144034.18   -2947.1193 
   62600    483.92616   -146035.78            0   -144034.16   -2923.7188 
   62700     487.5591   -146050.82            0   -144034.18   -2732.1498 
   62800    485.52374   -146042.38            0   -144034.16   -3002.3158 
   62900     488.7434   -146055.73            0   -144034.19   -2958.4267 
   63000    487.42576   -146050.27            0   -144034.18   -3020.5484 
   63100    486.44863   -146046.23            0   -144034.18   -2975.2608 
   63200    485.31931   -146041.54            0   -144034.17   -3046.3873 
   63300    488.53559   -146054.86            0   -144034.18   -2993.5573 
   63400    488.63255   -146055.27            0   -144034.19   -3079.4443 
   63500    487.75761   -146051.66            0    -144034.2   -3055.8712 
   63600     489.8988   -146060.51            0   -144034.19   -2938.6427 
   63700    485.20546   -146041.08            0   -144034.18   -3047.0112 
   63800    488.76761   -146055.83            0   -144034.19   -2983.8742 
   63900    486.48353   -146046.36            0   -144034.17   -2900.5943 
   64000    484.90142   -146039.82            0   -144034.17   -2974.7347 
   64100    489.00662   -146056.82            0   -144034.19    -2938.195 
   64200    489.94998   -146060.73            0    -144034.2   -2932.7139 
   64300    487.81632    -146051.9            0    -144034.2   -3153.7475 
   64400    489.28201   -146057.96            0    -144034.2   -3111.8209 
   64500    487.54728   -146050.78            0   -144034.19   -3066.7799 
   64600    489.65571    -146059.5            0   -144034.19   -3030.6488 
   64700    490.60413   -146063.43            0    -144034.2   -3118.5814 
   64800     484.9701   -146040.11            0   -144034.18   -3090.9331 
   64900    487.71023   -146051.45            0   -144034.18   -3054.1916 
   65000    486.45579   -146046.24            0   -144034.17   -3041.0704 
   65100    486.19407   -146045.16            0   -144034.16   -2937.1863 
   65200    484.30122   -146037.32            0   -144034.15   -3033.8158 
   65300    488.71036   -146055.59            0   -144034.19   -3035.0234 
   65400    485.12555   -146040.73            0   -144034.16   -3037.7608 
   65500    486.80617    -146047.7            0   -144034.17   -3070.0814 
   65600    488.03687    -146052.8            0   -144034.18   -3087.3815 
   65700    487.09617   -146048.91            0   -144034.18   -3194.8047 
   65800     489.1379   -146057.35            0   -144034.18   -3015.9351 
   65900    487.79838   -146051.81            0   -144034.18   -3160.2753 
   66000    486.16173   -146045.04            0   -144034.18   -3195.0678 
   66100    489.11882   -146057.28            0   -144034.19   -3045.0874 
   66200     487.7158   -146051.47            0   -144034.18   -3071.5193 
   66300    487.68232   -146051.33            0   -144034.18   -3123.5933 
   66400    485.96957   -146044.24            0   -144034.18   -3117.3476 
   66500    487.34274   -146049.91            0   -144034.17   -2937.5954 
   66600    484.14945   -146036.69            0   -144034.15   -2991.0789 
   66700    487.65569   -146051.22            0   -144034.18   -3023.0744 
   66800    485.64183   -146042.87            0   -144034.16   -3022.5168 
   66900    487.19772   -146049.32            0   -144034.17   -2870.9355 
   67000    483.61941    -146034.5            0   -144034.15   -3116.3154 
   67100    488.54243   -146054.89            0   -144034.18     -2988.97 
   67200    484.93475   -146039.94            0   -144034.16   -3066.9345 
   67300    487.81426   -146051.87            0   -144034.18   -2987.8884 
   67400    485.47055   -146042.16            0   -144034.16   -3189.1623 
   67500     488.2746   -146053.77            0   -144034.17   -3009.6394 
   67600    487.29073   -146049.71            0   -144034.18   -3048.3838 
   67700    486.50416   -146046.44            0   -144034.17   -3057.3542 
   67800    486.15756   -146045.01            0   -144034.17   -3195.1752 
   67900    489.15211    -146057.4            0   -144034.18   -2834.5019 
   68000    484.15189   -146036.72            0   -144034.17   -3276.0994 
   68100    485.95955   -146044.19            0   -144034.17   -2971.1583 
   68200    487.80992   -146051.86            0   -144034.18   -3201.6176 
   68300     486.4317   -146046.16            0   -144034.18   -3097.8922 
   68400    487.12729   -146049.03            0   -144034.17   -2918.9303 
   68500    487.86035   -146052.06            0   -144034.18   -3075.3204 
   68600    487.88794   -146052.18            0   -144034.18   -3093.9806 
   68700    488.27993   -146053.81            0   -144034.19   -3000.0878 
   68800    488.15596    -146053.3            0   -144034.19   -3172.0359 
   68900    488.36036   -146054.13            0   -144034.18   -2940.1343 
   69000    488.12021   -146053.16            0    -144034.2   -3166.2939 
   69100    488.63908   -146055.29            0   -144034.19   -2965.9876 
   69200    486.92923   -146048.22            0   -144034.18   -3124.0967 
   69300    488.58463   -146055.07            0   -144034.19   -2963.9273 
   69400    487.28255   -146049.67            0   -144034.17   -2919.3728 
   69500    486.99281   -146048.47            0   -144034.17   -2866.9239 
   69600    486.25971   -146045.44            0   -144034.18   -3051.2402 
   69700    488.41301   -146054.36            0   -144034.19   -2927.1283 
   69800     486.1006   -146044.78            0   -144034.17   -2918.1781 
   69900    489.37846   -146058.36            0   -144034.19   -2816.3899 
   70000    486.23004   -146045.32            0   -144034.18   -3037.7137 
   70100    487.74719   -146051.59            0   -144034.17    -2906.971 
   70200    488.81074   -146056.01            0   -144034.19   -3071.0919 
   70300     487.4765   -146050.48            0   -144034.18   -2911.1347 
   70400    488.42444   -146054.41            0   -144034.19   -2968.1381 
   70500     489.7472   -146059.89            0    -144034.2   -2866.4666 
   70600    486.65543   -146047.09            0   -144034.19   -2963.6597 
   70700    487.73887   -146051.57            0   -144034.19   -2930.2269 
   70800    486.69357   -146047.22            0   -144034.16   -2993.8941 
   70900    485.47182   -146042.18            0   -144034.17   -3001.1392 
   71000     489.3164    -146058.1            0   -144034.19   -2914.3038 
   71100    487.55501   -146050.81            0   -144034.19   -3114.9751 
   71200    489.71319   -146059.75            0    -144034.2   -2988.4183 
   71300    486.80905    -146047.7            0   -144034.17   -3124.7024 
   71400    486.90276    -146048.1            0   -144034.17   -2894.9657 
   71500    489.52411   -146058.95            0   -144034.18   -2964.0316 
   71600    485.01541    -146040.3            0   -144034.18   -3179.4741 
   71700    487.95844   -146052.47            0   -144034.18   -2899.4076 
   71800    486.31628   -146045.67            0   -144034.17   -3099.9787 
   71900    488.68045   -146055.47            0   -144034.19   -2923.5071 
   72000    485.82773   -146043.66            0   -144034.18    -3005.642 
   72100    489.27378   -146057.93            0    -144034.2   -3056.9087 
   72200    485.19381   -146041.02            0   -144034.17   -2990.8021 
   72300    488.02374   -146052.74            0   -144034.18   -2939.3036 
   72400     486.4973   -146046.42            0   -144034.18   -2995.2873 
   72500    489.35415   -146058.25            0   -144034.19   -2909.9003 
   72600    485.53565   -146042.45            0   -144034.18   -3155.2905 
   72700    487.91652   -146052.31            0   -144034.19   -3108.7934 
   72800    490.36946   -146062.47            0   -144034.21   -3003.1663 
   72900    486.34937   -146045.81            0   -144034.17   -3042.6104 
   73000    485.22328   -146041.14            0   -144034.17   -3113.7863 
   73100     485.8512   -146043.74            0   -144034.17   -2981.3283 
   73200    487.53931   -146050.74            0   -144034.18   -3105.3891 
   73300    486.95659   -146048.33            0   -144034.18   -3111.1057 
   73400     488.3754   -146054.19            0   -144034.17   -2977.2078 
   73500    487.67779   -146051.32            0   -144034.19   -3244.8013 
   73600     488.9784    -146056.7            0   -144034.19    -2925.121 
   73700    486.00567   -146044.38            0   -144034.17   -3061.7711 
   73800    488.12317   -146053.15            0   -144034.18    -3005.345 
   73900     485.6775   -146043.02            0   -144034.16   -2955.4003 
   74000    486.64108   -146047.02            0   -144034.18   -2995.3488 
   74100    487.74191   -146051.58            0   -144034.18   -2938.6374 
   74200    486.75872   -146047.52            0   -144034.19    -2999.493 
   74300    488.36031   -146054.14            0   -144034.18   -2881.2508 
   74400    487.79357   -146051.79            0   -144034.18   -3027.7949 
   74500    486.87736   -146048.01            0   -144034.19   -3094.4166 
   74600    487.24188   -146049.51            0   -144034.18   -2944.9466 
   74700    488.43869   -146054.46            0   -144034.18   -2968.1344 
   74800    487.73164   -146051.54            0   -144034.19   -3043.1729 
   74900    487.89186   -146052.21            0   -144034.19   -2979.8707 
   75000    490.53986   -146063.16            0   -144034.19   -2832.7895 
   75100     487.2154   -146049.41            0   -144034.19   -3113.0623 
   75200    487.81806    -146051.9            0   -144034.19   -2984.7431 
   75300    485.45705   -146042.11            0   -144034.16   -2909.0558 
   75400    487.42323   -146050.26            0   -144034.18   -2958.3374 
   75500    487.92063   -146052.31            0   -144034.18   -3035.1449 
   75600    486.13024    -146044.9            0   -144034.17    -2888.363 
   75700    486.85375   -146047.89            0   -144034.17   -2954.1357 
   75800    484.55853    -146038.4            0   -144034.17   -2973.4362 
   75900    486.66231    -146047.1            0   -144034.17   -2874.8374 
   76000    486.28704   -146045.55            0   -144034.17   -2992.0322 
   76100    487.41014   -146050.21            0   -144034.18   -2986.3628 
   76200    486.55364   -146046.66            0   -144034.18   -3206.9552 
   76300    489.63763   -146059.43            0   -144034.19   -2929.2756 
   76400    485.50107   -146042.31            0   -144034.18    -3086.793 
   76500    483.80634   -146035.27            0   -144034.15   -2886.3829 
   76600    487.56455   -146050.84            0   -144034.18   -2991.6445 
   76700    488.26892   -146053.76            0   -144034.18    -3040.868 
   76800    485.69365   -146043.11            0   -144034.18   -3133.1099 
   76900    487.37204   -146050.05            0   -144034.19   -3120.7876 
   77000    487.04171   -146048.67            0   -144034.17   -2890.2513 
   77100    484.46689   -146038.02            0   -144034.17   -3231.7633 
   77200    487.55635    -146050.8            0   -144034.17   -3093.7185 
   77300    485.34378   -146041.64            0   -144034.17   -3055.7994 
   77400    487.80878   -146051.86            0   -144034.19   -3074.9664 
   77500     488.3847   -146054.24            0   -144034.19   -3146.3548 
   77600     488.6606   -146055.38            0   -144034.19   -3021.6139 
   77700    487.50461   -146050.61            0   -144034.19   -3120.7167 
   77800    487.50369   -146050.61            0    -144034.2   -3161.2653 
   77900    487.70597   -146051.43            0   -144034.18    -2864.767 
   78000      484.593   -146038.53            0   -144034.16   -3169.1513 
   78100    483.65177   -146034.63            0   -144034.15    -2933.907 
   78200    486.63379   -146046.99            0   -144034.18   -3041.8284 
   78300    486.93275   -146048.23            0   -144034.18   -3044.1707 
   78400    490.53176   -146063.13            0   -144034.19   -3090.6868 
   78500    485.79278   -146043.51            0   -144034.17   -3290.4399 
   78600    490.42765    -146062.7            0    -144034.2   -2949.9687 
   78700    486.74135   -146047.45            0   -144034.19   -3167.9846 
   78800    485.32476   -146041.58            0   -144034.18   -3048.1148 
   78900    487.68061   -146051.32            0   -144034.18   -2859.4008 
   79000    484.64334   -146038.75            0   -144034.17   -3089.6485 
   79100    488.50842   -146054.75            0   -144034.19   -2841.2393 
   79200    486.81535   -146047.75            0   -144034.18    -2881.952 
   79300    488.00115   -146052.66            0   -144034.19    -3040.463 
   79400    487.96504   -146052.51            0   -144034.19   -3093.3608 
   79500    488.12183   -146053.15            0   -144034.18   -2995.4929 
   79600     484.9976   -146040.21            0   -144034.17   -2942.9016 
   79700     487.5239   -146050.68            0   -144034.19   -3053.9718 
   79800    486.69564   -146047.25            0   -144034.18   -3061.2621 
   79900    488.67382   -146055.44            0   -144034.19   -3166.3551 
   80000    489.89344   -146060.49            0    -144034.2   -3067.9064 
   80100    485.78555   -146043.47            0   -144034.17   -3077.3797 
   80200    489.68422   -146059.62            0   -144034.19   -3098.1203 
   80300    487.35258   -146049.96            0   -144034.18   -3120.8037 
   80400    487.71666   -146051.47            0   -144034.18   -3155.6918 
   80500    489.31131   -146058.08            0    -144034.2   -2995.2151 
   80600    488.27485   -146053.79            0   -144034.19   -3100.4418 
   80700    486.64259   -146047.04            0   -144034.19   -3045.7036 
   80800    489.84161   -146060.28            0    -144034.2    -3129.316 
   80900     489.8491   -146060.32            0   -144034.21   -3061.8024 
   81000    489.72037   -146059.78            0    -144034.2   -2994.8262 
   81100    486.23041   -146045.33            0   -144034.18   -3233.8637 
   81200    487.47533   -146050.47            0   -144034.17   -3070.1829 
   81300    485.35787   -146041.71            0   -144034.18   -3135.5665 
   81400    487.54179   -146050.75            0   -144034.18     -3097.46 
   81500    487.19986   -146049.33            0   -144034.17   -3132.4951 
   81600    486.88161   -146048.01            0   -144034.17   -3010.5583 
   81700    486.69947   -146047.25            0   -144034.17   -3081.9559 
   81800    487.24499   -146049.52            0   -144034.18   -3115.1304 
   81900    486.84548   -146047.87            0   -144034.18   -3174.9397 
   82000    488.81808   -146056.03            0   -144034.18   -3007.8634 
   82100    486.75192   -146047.48            0   -144034.18   -3162.8681 
   82200    487.95013   -146052.44            0   -144034.18   -3007.9249 
   82300    487.92384   -146052.34            0   -144034.19   -3199.4407 
   82400    490.15221   -146061.56            0    -144034.2   -3055.7944 
   82500    488.30437   -146053.91            0   -144034.19   -3013.6531 
   82600    486.29018   -146045.57            0   -144034.18   -3089.4849 
   82700     484.5257   -146038.25            0   -144034.16   -3098.9192 
   82800    488.89423   -146056.35            0   -144034.19   -3085.8312 
   82900    485.68846   -146043.08            0   -144034.18   -3164.5783 
   83000    487.83862   -146051.97            0   -144034.18   -3058.2895 
   83100    486.94401   -146048.28            0   -144034.18   -3147.4068 
   83200    487.45473   -146050.39            0   -144034.18    -3182.362 
   83300    487.60996   -146051.03            0   -144034.18   -3133.1709 
   83400    487.98901    -146052.6            0   -144034.18   -3139.1246 
   83500    486.13025   -146044.91            0   -144034.18   -3134.9877 
   83600    487.08493   -146048.85            0   -144034.17   -3155.7601 
   83700    488.70188   -146055.55            0   -144034.18   -3125.4576 
   83800    487.79453   -146051.79            0   -144034.17   -3133.7204 
   83900    486.04947   -146044.58            0   -144034.18   -3097.0857 
   84000    484.58694   -146038.51            0   -144034.16   -3125.1477 
   84100    485.70175   -146043.13            0   -144034.17   -3018.7006 
   84200    484.04638   -146036.28            0   -144034.17   -3242.6893 
   84300     487.6011   -146050.98            0   -144034.17   -3051.7801 
   84400    485.52807   -146042.42            0   -144034.18   -3197.4837 
   84500    486.50735   -146046.46            0   -144034.17   -3036.8874 
   84600    486.95169   -146048.31            0   -144034.18   -3169.8847 
   84700    485.07941   -146040.54            0   -144034.16   -3012.4808 
   84800    484.91727   -146039.88            0   -144034.17   -3325.0972 
   84900    488.55364   -146054.93            0   -144034.18   -2981.3483 
   85000    485.96467   -146044.23            0   -144034.18   -3352.1851 
   85100    487.95066   -146052.43            0   -144034.17   -3085.9374 
   85200    485.71058   -146043.16            0   -144034.17   -3164.4066 
   85300    486.34987   -146045.81            0   -144034.17   -3101.1004 
   85400    488.32293      -146054            0    -144034.2   -3287.3574 
   85500    487.34205   -146049.92            0   -144034.17   -2989.7646 
   85600    484.83434   -146039.54            0   -144034.17   -3211.0462 
   85700      485.719   -146043.19            0   -144034.16   -3099.9141 
   85800    488.09627   -146053.04            0   -144034.18   -3181.2994 
   85900    487.17236   -146049.22            0   -144034.18   -3229.8453 
   86000    487.29696   -146049.73            0   -144034.17   -3097.1091 
   86100     487.1729   -146049.23            0   -144034.19   -3248.6806 
   86200    486.26441   -146045.46            0   -144034.17   -3156.8841 
   86300    485.95432   -146044.16            0   -144034.15   -3037.5385 
   86400    485.74844   -146043.32            0   -144034.17   -3191.4177 
   86500    486.87853   -146048.01            0   -144034.18   -3305.9892 
   86600    490.41604   -146062.65            0   -144034.19   -3039.9217 
   86700    488.25837   -146053.72            0   -144034.19   -3119.2061 
   86800    486.21138   -146045.24            0   -144034.18   -3371.5621 
   86900    485.30471   -146041.48            0   -144034.16   -3195.7492 
   87000    485.97088   -146044.23            0   -144034.16   -3241.4642 
   87100    488.85762    -146056.2            0   -144034.18   -3184.7804 
   87200    487.57541   -146050.88            0   -144034.17   -3235.1298 
   87300     488.9866   -146056.73            0   -144034.18   -3110.2782 
   87400    488.20807   -146053.51            0   -144034.18   -3246.4514 
   87500    483.65314   -146034.63            0   -144034.15   -3108.1859 
   87600    485.64932    -146042.9            0   -144034.16   -3258.2039 
   87700    488.20993    -146053.5            0   -144034.17   -3130.8458 
   87800    487.93695   -146052.37            0   -144034.17   -3175.7608 
   87900    484.70479   -146038.99            0   -144034.16   -3319.4439 
   88000     485.9094   -146043.98            0   -144034.17   -3038.9093 
   88100    487.48696   -146050.51            0   -144034.17   -3119.9757 
   88200    490.31278   -146062.22            0   -144034.19   -3217.9036 
   88300    486.98584   -146048.45            0   -144034.18   -3377.9955 
   88400    488.19485   -146053.45            0   -144034.18   -3038.9846 
   88500    491.11999   -146065.56            0   -144034.19   -2944.3054 
   88600    485.38357   -146041.82            0   -144034.17   -3266.0016 
   88700    487.52687   -146050.69            0   -144034.18   -3040.9687 
   88800    488.05138   -146052.86            0   -144034.18   -3022.2494 
   88900    489.25274   -146057.83            0   -144034.18   -2967.9156 
   89000    484.20918   -146036.95            0   -144034.17   -3165.7309 
   89100    488.51993   -146054.81            0   -144034.19   -3131.0793 
   89200    487.66255   -146051.25            0   -144034.19   -3198.3918 
   89300    491.13706   -146065.63            0   -144034.19   -3095.8632 
   89400    488.99776   -146056.78            0   -144034.19   -3198.7647 
   89500    487.50969   -146050.62            0   -144034.19   -3231.8593 
   89600    485.57311   -146042.59            0   -144034.17   -3115.5372 
   89700    485.78408   -146043.46            0   -144034.17   -3191.4625 
   89800    487.38984   -146050.11            0   -144034.17      -3088.4 
   89900    488.37931   -146054.22            0   -144034.19   -3231.2585 
   90000    486.14902   -146044.99            0   -144034.18   -3122.5016 
   90100    486.76413   -146047.53            0   -144034.17   -3202.9944 
   90200    489.67177   -146059.56            0   -144034.18   -3143.0007 
   90300    487.08393   -146048.85            0   -144034.18   -3342.1408 
   90400    488.32128   -146053.96            0   -144034.17   -3195.3181 
   90500    487.17525   -146049.23            0   -144034.18   -3407.5064 
   90600    490.30985   -146062.21            0   -144034.19   -3141.5796 
   90700    487.32565   -146049.85            0   -144034.18   -3276.2753 
   90800      486.526   -146046.53            0   -144034.17   -3178.3578 
   90900    485.17612   -146040.95            0   -144034.17   -3338.8941 
   91000     489.3845   -146058.37            0   -144034.18   -3046.2979 
   91100    487.74904    -146051.6            0   -144034.17   -3307.2023 
   91200    488.48563   -146054.65            0   -144034.18   -3196.6571 
   91300    487.83782   -146051.97            0   -144034.18    -3236.289 
   91400    486.72238   -146047.34            0   -144034.16   -3104.2335 
   91500    485.96163   -146044.19            0   -144034.16   -3281.0209 
   91600    488.72354   -146055.64            0   -144034.18   -3184.7374 
   91700    486.72767   -146047.37            0   -144034.17   -3069.0548 
   91800    490.04507   -146061.11            0   -144034.19    -3220.959 
   91900    487.33947   -146049.92            0   -144034.19   -3357.9704 
   92000    487.37911   -146050.07            0   -144034.17   -3001.0163 
   92100    485.81169   -146043.58            0   -144034.17   -3253.5956 
   92200    486.72278   -146047.34            0   -144034.16    -3122.204 
   92300    484.83146   -146039.52            0   -144034.16   -3291.8471 
   92400     485.9878    -146044.3            0   -144034.16    -3182.562 
   92500    490.26483   -146062.02            0   -144034.19   -3163.2483 
   92600    488.24357   -146053.65            0   -144034.18   -3027.8052 
   92700    487.31707   -146049.82            0   -144034.18   -3245.0987 
   92800    488.77301   -146055.84            0   -144034.18   -3066.6615 
   92900    486.29995   -146045.61            0   -144034.18   -3104.2787 
   93000    485.85745   -146043.77            0   -144034.17    -3070.427 
   93100    484.92483    -146039.9            0   -144034.15    -3043.117 
   93200    485.77204   -146043.43            0   -144034.18   -3284.2009 
   93300      490.309    -146062.2            0   -144034.19   -3007.0372 
   93400    487.39521   -146050.15            0   -144034.18   -3126.3439 
   93500    488.12234   -146053.15            0   -144034.18   -2964.9107 
   93600    484.39929   -146037.73            0   -144034.16   -2962.7533 
   93700    486.98491   -146048.44            0   -144034.17   -3053.3316 
   93800    485.90953   -146043.98            0   -144034.17   -3072.5159 
   93900    487.18286   -146049.26            0   -144034.17   -3042.5501 
   94000    488.47079   -146054.59            0   -144034.18   -3241.7836 
   94100    486.85179   -146047.88            0   -144034.17   -2971.0534 
   94200    486.67616   -146047.15            0   -144034.16   -3119.0364 
   94300    487.19421   -146049.29            0   -144034.16    -2975.418 
   94400    487.24974   -146049.54            0   -144034.18   -3084.0367 
   94500    487.52516   -146050.68            0   -144034.18   -3112.3418 
   94600      487.361   -146049.99            0   -144034.17   -3036.1324 
   94700    485.79846   -146043.53            0   -144034.18    -3080.964 
   94800    487.70735   -146051.44            0   -144034.18   -2984.5778 
   94900    487.13307   -146049.06            0   -144034.18    -3049.861 
   95000    484.68097    -146038.9            0   -144034.16   -3092.3135 
   95100    485.27738   -146041.35            0   -144034.15   -2921.4209 
   95200    486.36907   -146045.88            0   -144034.16   -3146.5856 
   95300    488.46758   -146054.57            0   -144034.18   -3101.0619 
   95400    487.13741   -146049.07            0   -144034.18    -3167.906 
   95500    489.20531   -146057.64            0   -144034.19   -3142.6597 
   95600    486.13832   -146044.92            0   -144034.16   -3075.5911 
   95700    483.91922   -146035.74            0   -144034.15   -3036.5185 
   95800    487.16562   -146049.19            0   -144034.18    -3105.031 
   95900    488.22046   -146053.55            0   -144034.17   -2938.1159 
   96000    485.06477    -146040.5            0   -144034.18   -3276.2959 
   96100    489.42405   -146058.53            0   -144034.18   -3091.1795 
   96200    486.03064   -146044.49            0   -144034.17   -3122.0176 
   96300     487.6353   -146051.14            0   -144034.18   -3113.2185 
   96400    488.47251    -146054.6            0   -144034.19   -3002.8852 
   96500     487.4583    -146050.4            0   -144034.18   -3146.1617 
   96600    485.51326   -146042.34            0   -144034.16   -3148.2772 
   96700    487.05146    -146048.7            0   -144034.16   -3062.8431 
   96800    487.10405   -146048.92            0   -144034.16    -3130.468 
   96900    488.31426   -146053.93            0   -144034.17   -3061.6782 
   97000    486.96012   -146048.33            0   -144034.17   -3171.3672 
   97100    485.63237   -146042.83            0   -144034.16   -3088.9671 
   97200    489.29517   -146057.99            0   -144034.17   -2926.6032 
   97300    486.16162   -146045.03            0   -144034.17   -3204.7453 
   97400    486.61478    -146046.9            0   -144034.16   -2870.6244 
   97500    485.82111   -146043.61            0   -144034.16   -3116.0555 
   97600    485.59282   -146042.67            0   -144034.17   -2994.2354 
   97700    486.09562   -146044.75            0   -144034.17   -3002.7252 
   97800    488.12612   -146053.15            0   -144034.16   -3000.5613 
   97900    488.35748   -146054.12            0   -144034.18   -3115.1386 
   98000    487.23684   -146049.48            0   -144034.18   -3140.3153 
   98100    488.69052   -146055.49            0   -144034.17   -2936.5116 
   98200    485.03834   -146040.38            0   -144034.17   -3225.1751 
   98300    488.84982   -146056.16            0   -144034.18   -2970.5778 
   98400    485.95418   -146044.17            0   -144034.16   -3091.3171 
   98500    486.97082   -146048.37            0   -144034.16   -3019.5056 
   98600     488.6696    -146055.4            0   -144034.17   -2999.4831 
   98700    483.18201   -146032.69            0   -144034.16   -3220.3234 
   98800    490.03966   -146061.09            0   -144034.19   -3018.6026 
   98900     483.0025   -146031.94            0   -144034.15   -3089.3137 
   99000    488.98648   -146056.72            0   -144034.18   -2864.3103 
   99100    487.00262   -146048.51            0   -144034.17   -3113.4984 
   99200    486.70849   -146047.28            0   -144034.16   -3097.3779 
   99300    486.09769   -146044.76            0   -144034.16   -3079.8027 
   99400     486.2252   -146045.29            0   -144034.17    -3123.775 
   99500    487.78759   -146051.78            0   -144034.19   -3159.6114 
   99600    488.24782   -146053.67            0   -144034.18   -2803.0493 
   99700    486.64492   -146047.04            0   -144034.18   -3255.1153 
   99800    488.27953   -146053.79            0   -144034.17   -2973.1268 
   99900    486.90888   -146048.12            0   -144034.17   -2974.6809 
  100000    485.76917    -146043.4            0   -144034.17   -3035.7583 
  100100    487.84174   -146051.98            0   -144034.17   -2960.5958 
  100200    487.64901    -146051.2            0   -144034.18   -3174.0361 
  100300    488.09376   -146053.03            0   -144034.18   -2966.7056 
  100400    486.30687   -146045.63            0   -144034.16   -2966.7983 
  100500    485.54427   -146042.47            0   -144034.17   -3043.0297 
  100600    488.35678   -146054.12            0   -144034.18   -2799.9281 
  100700    485.91407   -146044.01            0   -144034.17   -3133.9183 
  100800    487.91994    -146052.3            0   -144034.17   -2997.7758 
  100900    488.57665   -146055.03            0   -144034.18   -3118.3539 
  101000    488.18411   -146053.41            0   -144034.18   -3045.3498 
  101100    487.02009   -146048.59            0   -144034.18   -3229.1901 
  101200    488.53829   -146054.87            0   -144034.18   -3023.8697 
  101300    489.58694   -146059.21            0   -144034.19   -2988.8442 
  101400    487.31156    -146049.8            0   -144034.18   -3165.6492 
  101500    487.72094   -146051.49            0   -144034.18   -3116.4641 
  101600    488.90086   -146056.36            0   -144034.17   -3051.0392 
  101700     486.9807   -146048.42            0   -144034.17   -3114.2892 
  101800    487.41533   -146050.23            0   -144034.18   -3160.3589 
  101900    489.70971   -146059.72            0   -144034.18   -2965.8788 
  102000    486.37665   -146045.92            0   -144034.17    -3146.136 
  102100    487.00167    -146048.5            0   -144034.17   -3014.0649 
  102200    487.36857   -146050.01            0   -144034.16   -2981.6128 
  102300    486.75851    -146047.5            0   -144034.17   -3104.2554 
  102400    485.44389   -146042.05            0   -144034.16   -3209.6993 
  102500    489.58153   -146059.19            0   -144034.18   -2936.8716 
  102600    487.58062   -146050.89            0   -144034.16   -2983.8913 
  102700    486.95407   -146048.32            0   -144034.18   -3199.7352 
  102800    489.82682   -146060.19            0   -144034.17   -3024.1294 
  102900    487.88673   -146052.17            0   -144034.17   -3183.0117 
  103000    487.00187   -146048.51            0   -144034.17   -3093.8854 
  103100     486.8215   -146047.75            0   -144034.16    -3072.346 
  103200    490.36546   -146062.44            0   -144034.19   -3147.8206 
  103300    486.71056   -146047.29            0   -144034.16   -3033.3961 
  103400    488.75869   -146055.79            0   -144034.19    -3106.861 
  103500    486.46248   -146046.26            0   -144034.15   -2948.5281 
  103600    486.37397   -146045.91            0   -144034.17   -3129.4097 
  103700    488.01099   -146052.69            0   -144034.18   -2934.3166 
  103800    487.34758   -146049.94            0   -144034.17   -3105.7338 
  103900    487.82449   -146051.91            0   -144034.17   -3123.2773 
  104000    486.08271    -146044.7            0   -144034.16    -2954.932 
  104100    488.18395   -146053.41            0   -144034.18   -3160.6966 
  104200    487.37131   -146050.04            0   -144034.18   -3200.6554 
  104300    487.60089   -146050.98            0   -144034.17   -3097.9098 
  104400    486.05184   -146044.57            0   -144034.17   -3333.0746 
  104500    488.85921   -146056.18            0   -144034.16   -2848.0523 
  104600    486.49324   -146046.41            0   -144034.17   -3243.9717 
  104700    487.62965   -146051.11            0   -144034.18   -3033.6626 
  104800    485.57073   -146042.58            0   -144034.17   -2977.3752 
  104900    488.81331   -146056.01            0   -144034.18     -2845.46 
  105000     484.3647   -146037.59            0   -144034.16   -3077.0422 
  105100    486.32819   -146045.71            0   -144034.16   -2957.6114 
  105200    486.91461   -146048.14            0   -144034.17   -2935.2883 
  105300    485.93007   -146044.08            0   -144034.17   -3173.5842 
  105400    488.25565   -146053.69            0   -144034.17    -2858.654 
[...]
  507900    488.58911    -146055.1            0    -144034.2   -3132.3497 
  508000    489.32609   -146058.15            0    -144034.2   -2941.5269 
  508100    487.55832   -146050.84            0    -144034.2   -3129.0028 
  508200    488.04342   -146052.85            0   -144034.21   -3336.8972 
  508300    490.84123   -146064.43            0   -144034.21   -3137.1422 
  508400    485.78336   -146043.48            0   -144034.18    -3165.869 
  508500    487.07577   -146048.83            0   -144034.19   -3105.6279 
  508600    486.04404   -146044.57            0   -144034.19   -3083.1359 
  508700    488.96396   -146056.66            0   -144034.21   -3024.3574 
  508800    489.52382   -146058.98            0   -144034.21   -3223.2697 
  508900    487.70954   -146051.45            0   -144034.19     -3071.03 
  509000    487.67553   -146051.31            0   -144034.19   -3034.5552 
  509100    485.93014   -146044.09            0   -144034.19     -3110.58 
  509200    485.33676   -146041.63            0   -144034.19    -3155.335 
  509300    489.71057   -146059.74            0    -144034.2   -3028.2535 
  509400    489.37973   -146058.37            0    -144034.2   -3079.1435 
  509500    485.06182    -146040.5            0   -144034.19   -3291.9222 
  509600     488.0346   -146052.79            0   -144034.18   -3040.8339 
  509700    487.96419   -146052.49            0   -144034.18   -2939.7914 
  509800    486.19444   -146045.19            0    -144034.2   -3209.0862 
  509900    488.62936   -146055.26            0   -144034.19   -2922.4025 
  510000    487.68359   -146051.35            0   -144034.19   -3260.5816 
  510100    486.66174   -146047.11            0   -144034.18   -2987.7502 
  510200    487.18903    -146049.3            0   -144034.19   -3169.0305 
  510300    488.31076   -146053.94            0   -144034.19   -3034.3894 
  510400    488.28019   -146053.82            0    -144034.2   -3235.5064 
  510500    487.35924      -146050            0   -144034.19   -3061.0683 
  510600      488.073   -146052.96            0   -144034.19   -3095.4913 
  510700    486.54644   -146046.65            0   -144034.19   -3204.8081 
  510800    490.12073   -146061.43            0    -144034.2   -2873.8295 
  510900    484.69624   -146038.99            0   -144034.19   -3339.9202 
  511000    488.90291   -146056.38            0   -144034.18   -2842.9656 
  511100    482.68318   -146030.64            0   -144034.17   -3266.7867 
  511200    487.68511   -146051.34            0   -144034.18   -2955.8806 
  511300    485.51548   -146042.38            0   -144034.19   -3217.6105 
  511400     485.8371   -146043.69            0   -144034.17   -2947.8749 
  511500    487.86777    -146052.1            0   -144034.18   -3024.8408 
  511600    484.02529   -146036.21            0   -144034.18    -3110.376 
  511700    486.49256    -146046.4            0   -144034.17   -2892.5008 
  511800    484.98038   -146040.15            0   -144034.18   -3163.3226 
  511900    485.67091   -146043.01            0   -144034.18   -3188.9519 
  512000    487.09437    -146048.9            0   -144034.19   -2961.5722 
  512100    487.53619   -146050.74            0   -144034.19   -2996.8451 
  512200    488.20042   -146053.49            0   -144034.19   -3118.2352 
  512300    485.40511   -146041.92            0   -144034.19   -3211.3926 
  512400    489.51183   -146058.92            0   -144034.21   -3021.2121 
  512500    487.28838   -146049.71            0   -144034.19   -3040.4798 
  512600    485.80535   -146043.57            0   -144034.18   -3070.5293 
  512700    488.87751   -146056.29            0    -144034.2    -3008.795 
  512800     484.5704   -146038.46            0   -144034.19   -3209.7604 
  512900    487.78842   -146051.78            0   -144034.19   -3023.3708 
  513000    487.09708   -146048.92            0    -144034.2   -3073.7103 
  513100     486.5389   -146046.62            0    -144034.2    -3235.732 
  513200    486.87543   -146048.01            0    -144034.2   -3034.0983 
  513300    491.78419   -146068.33            0   -144034.22   -2976.0489 
  513400    486.63441   -146047.01            0   -144034.19   -3138.2529 
  513500    485.56269   -146042.58            0    -144034.2   -3203.9815 
  513600    487.23765   -146049.49            0   -144034.18   -2785.3617 
  513700    486.70244   -146047.28            0   -144034.19   -2955.1539 
  513800    484.48156   -146038.09            0   -144034.18   -3181.9835 
  513900    489.48927   -146058.82            0   -144034.19   -2929.7047 
  514000    485.79264   -146043.52            0   -144034.19   -3203.4142 
  514100    485.04068    -146040.4            0   -144034.18   -3088.0189 
  514200    488.44573   -146054.51            0   -144034.21   -3133.9107 
  514300    489.04567   -146056.99            0    -144034.2    -2982.411 
  514400    486.51966   -146046.53            0   -144034.19   -3175.6036 
  514500    485.09337   -146040.62            0   -144034.18   -3135.6595 
  514600    489.61844   -146059.37            0   -144034.21   -3062.0319 
  514700    488.67049   -146055.43            0   -144034.19   -3020.5805 
  514800    488.13567   -146053.23            0   -144034.21   -3187.3623 
  514900    487.11129   -146048.97            0   -144034.19   -2986.1894 
  515000    487.37061   -146050.05            0   -144034.19   -3267.2181 
  515100    489.34796   -146058.24            0   -144034.21   -3062.1531 
  515200    489.55182    -146059.1            0   -144034.22   -3233.8384 
  515300    487.66444   -146051.28            0    -144034.2   -3139.4397 
  515400    490.43866   -146062.76            0   -144034.21    -3179.486 
  515500    487.04832   -146048.72            0   -144034.19   -3182.7177 
  515600    488.01273   -146052.69            0   -144034.18   -3029.2112 
  515700     482.9009   -146031.54            0   -144034.17   -3172.9279 
  515800    487.70821   -146051.43            0   -144034.17   -2866.9057 
  515900    484.77475   -146039.29            0   -144034.17   -3053.4969 
  516000    488.27564   -146053.81            0   -144034.21   -3166.2176 
  516100    486.78056   -146047.61            0   -144034.19   -3131.8366 
  516200    489.18688   -146057.58            0   -144034.21    -2948.211 
  516300    489.15431   -146057.45            0   -144034.21   -3058.5301 
  516400    488.30556   -146053.93            0   -144034.21   -3099.1155 
  516500    488.14931   -146053.27            0   -144034.19   -2861.6165 
  516600    486.16617   -146045.06            0   -144034.18   -3103.3141 
  516700    487.93955    -146052.4            0   -144034.19   -2957.5736 
  516800    487.34454   -146049.95            0   -144034.19   -3093.2896 
  516900    484.34095   -146037.51            0   -144034.18   -3087.0397 
  517000    487.74219   -146051.58            0   -144034.19   -2965.8913 
  517100    488.93939   -146056.55            0    -144034.2   -3033.3324 
  517200    486.22495   -146045.31            0   -144034.19   -3149.0774 
  517300    487.60727   -146051.03            0   -144034.19   -3019.8764 
  517400    488.93807   -146056.54            0    -144034.2    -2931.811 
  517500    487.63719   -146051.16            0    -144034.2   -3206.7867 
  517600    486.38876   -146045.99            0   -144034.19   -3061.4677 
  517700    489.84179   -146060.28            0    -144034.2   -2979.1467 
  517800    489.78132   -146060.05            0   -144034.22   -3168.0552 
  517900    487.45486   -146050.41            0    -144034.2   -3098.5535 
  518000    489.83272   -146060.25            0    -144034.2   -3065.3285 
  518100    486.06286   -146044.64            0   -144034.18   -3155.6752 
  518200    487.06069   -146048.76            0   -144034.18   -3142.3492 
  518300    489.42429   -146058.55            0    -144034.2   -3004.6855 
  518400    485.14935   -146040.85            0   -144034.18   -3260.0326 
  518500    488.24724   -146053.69            0    -144034.2   -3029.1986 
  518600     488.9979   -146056.78            0   -144034.19   -2937.4616 
  518700    485.35755   -146041.71            0   -144034.18   -3071.1695 
  518800    488.90626   -146056.42            0   -144034.21   -3137.9204 
  518900    486.44163    -146046.2            0   -144034.18   -2977.3115 
  519000    492.94789   -146073.16            0   -144034.23   -3000.8905 
  519100    485.71294   -146043.18            0   -144034.18   -2919.4143 
  519200    486.30821   -146045.66            0   -144034.19   -3080.0749 
  519300    487.53432   -146050.73            0   -144034.19   -2974.1836 
  519400    487.34958   -146049.96            0   -144034.19   -2873.7069 
  519500    487.04194   -146048.69            0   -144034.19   -3167.7884 
  519600    485.79474   -146043.52            0   -144034.17   -2946.6485 
  519700    488.65432   -146055.38            0   -144034.21   -2925.0463 
  519800    486.59737   -146046.86            0   -144034.19   -3186.6395 
  519900    487.94365   -146052.41            0   -144034.18   -2887.3623 
  520000    485.71146   -146043.19            0   -144034.19   -3068.9761 
  520100    486.76153   -146047.53            0   -144034.19   -2944.4299 
  520200    487.83655   -146051.98            0   -144034.19    -3067.855 
  520300    490.32644    -146062.3            0   -144034.21   -3119.1448 
  520400    489.95329   -146060.75            0    -144034.2   -3046.7814 
  520500     487.4912   -146050.55            0   -144034.19   -3202.1702 
  520600    489.03752   -146056.94            0   -144034.19    -2888.158 
  520700    490.10902    -146061.4            0   -144034.22   -3176.9463 
  520800    487.83774   -146051.99            0    -144034.2   -3185.9537 
  520900    488.79595   -146055.96            0   -144034.21   -3071.9734 
  521000    487.16346    -146049.2            0    -144034.2   -3158.4545 
  521100    488.50447   -146054.75            0    -144034.2   -2972.2517 
  521200    483.95062   -146035.89            0   -144034.17   -2964.4047 
  521300    483.91608   -146035.73            0   -144034.16   -2897.4908 
  521400    484.61314   -146038.63            0   -144034.17   -3027.4153 
  521500    487.98565    -146052.6            0   -144034.19   -3027.2039 
  521600    486.04761   -146044.57            0   -144034.18   -2968.0977 
  521700    488.83305    -146056.1            0   -144034.19   -3050.4048 
  521800    484.89124   -146039.79            0   -144034.19   -3259.5332 
  521900    488.73248   -146055.69            0   -144034.19   -2971.2233 
  522000    487.85495   -146052.06            0   -144034.19   -2990.5719 
  522100    487.72543   -146051.52            0    -144034.2   -3171.7437 
  522200    486.16355   -146045.05            0   -144034.18   -3074.5528 
  522300    490.98708   -146065.04            0   -144034.22   -3141.4911 
  522400    487.16561    -146049.2            0   -144034.18   -3046.0399 
  522500     488.3327   -146054.02            0   -144034.18   -3050.4131 
  522600    484.51228   -146038.22            0   -144034.18   -3090.9052 
  522700    491.26261   -146066.16            0    -144034.2   -2922.2784 
  522800    484.18902   -146036.88            0   -144034.18   -3081.8555 
  522900    486.35422   -146045.83            0   -144034.17   -2914.1876 
  523000    486.11733   -146044.86            0   -144034.19   -3186.5333 
  523100    488.67093   -146055.43            0   -144034.19   -3094.3695 
  523200    488.56417   -146054.99            0    -144034.2   -2972.9249 
  523300    485.79715   -146043.54            0   -144034.18   -3157.2619 
  523400    486.44265    -146046.2            0   -144034.18   -3108.3324 
  523500    488.31691   -146053.97            0   -144034.19   -3103.6373 
  523600    487.94492   -146052.42            0   -144034.19   -2924.2567 
  523700    485.42937   -146042.01            0   -144034.18   -3105.8358 
  523800     490.4296   -146062.72            0   -144034.21   -3095.2096 
  523900    487.70513   -146051.44            0    -144034.2   -3046.7568 
  524000    488.02918   -146052.79            0    -144034.2   -3077.6761 
  524100    488.26821   -146053.77            0    -144034.2   -2977.5603 
  524200    486.18795   -146045.17            0    -144034.2   -3170.3893 
  524300    492.21143    -146070.1            0   -144034.22   -2912.0377 
  524400    487.39518   -146050.15            0   -144034.19   -3101.1333 
  524500    486.12516   -146044.89            0   -144034.18   -3030.6759 
  524600    486.75474   -146047.49            0   -144034.18   -2874.4117 
  524700    488.33028   -146054.03            0    -144034.2    -3078.161 
  524800    487.45538    -146050.4            0   -144034.19   -3047.0291 
  524900    486.55008   -146046.65            0   -144034.18   -3046.1214 
  525000    486.56865   -146046.71            0   -144034.17   -2980.0542 
  525100    486.98382   -146048.45            0   -144034.19   -3041.4983 
  525200    489.68022   -146059.61            0    -144034.2   -2930.4564 
  525300    487.69287    -146051.4            0    -144034.2   -3145.4104 
  525400    489.21381   -146057.68            0   -144034.19   -2920.2815 
  525500    487.72159   -146051.51            0    -144034.2   -3067.5047 
  525600    486.46324   -146046.29            0   -144034.18   -3007.6094 
  525700    487.20222   -146049.36            0    -144034.2   -3036.6421 
  525800    488.82254   -146056.05            0   -144034.19   -2904.1525 
  525900    484.15468   -146036.74            0   -144034.18   -3027.0915 
  526000     489.2501   -146057.83            0    -144034.2   -2869.4314 
  526100    487.55191    -146050.8            0   -144034.19   -2876.2563 
  526200    486.31974    -146045.7            0   -144034.19   -3079.7095 
  526300    486.44833   -146046.23            0   -144034.18   -2839.5489 
  526400     487.5277    -146050.7            0   -144034.19   -3014.6462 
  526500    488.59068   -146055.09            0   -144034.18   -2885.6406 
  526600     487.1006   -146048.95            0    -144034.2   -3118.2282 
  526700    488.72985   -146055.68            0   -144034.19   -2968.3042 
  526800    485.87863   -146043.86            0   -144034.18   -2918.7196 
  526900    482.72081   -146030.78            0   -144034.16   -3060.0839 
  527000    486.02873   -146044.48            0   -144034.17   -2882.4977 
  527100    485.49907   -146042.29            0   -144034.17   -2870.3877 
  527200    486.36508   -146045.89            0   -144034.19   -3148.7114 
  527300    486.49988   -146046.44            0   -144034.19   -2965.6801 
  527400    485.57203    -146042.6            0   -144034.18   -2999.3875 
  527500    488.60328   -146055.14            0   -144034.18     -2881.18 
  527600    487.81914   -146051.91            0    -144034.2    -3067.089 
  527700    489.46305   -146058.71            0   -144034.19   -2791.8205 
  527800    485.29368   -146041.45            0   -144034.18   -2967.9752 
  527900    489.65548   -146059.51            0    -144034.2    -2835.972 
  528000    486.78537   -146047.62            0   -144034.18   -3058.8461 
  528100    489.06588   -146057.08            0   -144034.21   -2853.0817 
  528200    489.29629   -146058.04            0   -144034.22   -3029.5623 
  528300    488.03309    -146052.8            0    -144034.2   -2887.9371 
  528400    486.50453   -146046.46            0   -144034.18   -2970.0547 
  528500    488.36128   -146054.16            0    -144034.2   -3022.8748 
  528600    488.55937   -146054.97            0    -144034.2   -2913.6336 
  528700    488.55998   -146054.97            0   -144034.19   -2846.8521 
  528800    486.15735   -146045.04            0   -144034.19   -3035.5378 
  528900    486.39643   -146046.01            0   -144034.18   -2882.4424 
  529000    485.54417   -146042.48            0   -144034.18   -2820.0985 
  529100    485.91057   -146044.01            0   -144034.18   -2921.5861 
  529200      486.889   -146048.05            0   -144034.18   -2827.8598 
  529300    487.03302   -146048.65            0   -144034.18   -2908.4565 
  529400    486.90272   -146048.11            0   -144034.19   -2901.5961 
  529500    490.04596   -146061.13            0    -144034.2   -2807.7906 
  529600    486.88838   -146048.06            0    -144034.2   -3177.0732 
  529700    488.71831   -146055.63            0    -144034.2   -2960.3152 
  529800    487.76847   -146051.71            0    -144034.2   -3104.4381 
  529900    491.05555   -146065.32            0   -144034.21   -2946.5941 
  530000    488.54697   -146054.93            0    -144034.2   -3037.8449 
  530100    485.69244   -146043.11            0   -144034.19   -3059.4509 
  530200    491.42872   -146066.85            0    -144034.2   -2777.1664 
  530300    486.15849   -146045.04            0   -144034.19   -2880.7817 
  530400    487.59034   -146050.98            0   -144034.21   -2895.1089 
  530500    489.51962   -146058.96            0   -144034.21   -3032.2814 
  530600    490.65227   -146063.65            0   -144034.22   -2832.4575 
  530700    489.40925    -146058.5            0   -144034.21   -2943.2425 
  530800    487.37372   -146050.08            0    -144034.2   -2998.5043 
  530900    490.29877   -146062.18            0   -144034.21   -2836.2919 
  531000    487.79556   -146051.82            0    -144034.2   -3016.4344 
  531100    488.14722   -146053.27            0    -144034.2   -2862.0131 
  531200    488.47623   -146054.65            0   -144034.21   -2995.7793 
  531300    485.00983   -146040.28            0   -144034.18   -2943.4604 
  531400    489.18538   -146057.57            0    -144034.2   -2887.7559 
  531500    487.28706    -146049.7            0   -144034.19   -2927.0274 
  531600    485.39379   -146041.86            0   -144034.18   -2953.2994 
  531700    487.28987   -146049.71            0   -144034.18   -2726.4279 
  531800     483.2598   -146033.03            0   -144034.17   -2929.7279 
  531900    489.26674   -146057.91            0   -144034.21   -2875.3513 
  532000     485.3392   -146041.64            0   -144034.18   -2811.1413 
  532100    487.71575   -146051.49            0    -144034.2   -3002.9796 
  532200    487.13599   -146049.08            0   -144034.19   -2840.3432 
  532300     487.1362   -146049.09            0    -144034.2   -2943.1795 
  532400     485.9769   -146044.28            0   -144034.19   -2882.9379 
  532500    487.15283   -146049.14            0   -144034.18   -2843.9919 
  532600    487.22232   -146049.44            0   -144034.19   -2876.6195 
  532700    487.85124   -146052.05            0    -144034.2    -2818.822 
  532800    486.01262   -146044.43            0   -144034.19   -2959.5568 
  532900     487.6012      -146051            0   -144034.19   -2883.9793 
  533000     487.8846   -146052.17            0   -144034.19   -2971.0161 
  533100    487.52497   -146050.71            0   -144034.21   -3178.5837 
  533200    487.61725   -146051.07            0   -144034.19    -2894.302 
  533300    490.11201    -146061.4            0    -144034.2   -2878.8551 
  533400    487.51553   -146050.65            0   -144034.19    -2933.273 
  533500    486.11534   -146044.85            0   -144034.18   -3011.5064 
  533600    488.29399   -146053.87            0    -144034.2   -2879.2212 
  533700    485.98924   -146044.35            0    -144034.2   -3058.0111 
  533800    490.22797   -146061.88            0    -144034.2   -2886.7141 
  533900     487.8989   -146052.25            0    -144034.2   -3031.8368 
  534000    486.64548   -146047.05            0   -144034.18   -3078.7292 
  534100    489.20123   -146057.63            0    -144034.2   -2911.2793 
  534200    483.73428   -146034.99            0   -144034.17   -3108.8914 
  534300    488.75881   -146055.79            0   -144034.19   -2995.8848 
  534400    486.48381   -146046.37            0   -144034.18    -2983.134 
